<?xml version="1.0"?>
<VTKFile type="UnstructuredGrid" version="0.1" byte_order="LittleEndian">
  <UnstructuredGrid>

    <Piece NumberOfPoints="4" NumberOfCells="2">
      <PointData Vectors="E">
        <DataArray type="Float32" Name="E" NumberOfComponents="3" format="ascii">
-1 1 0
-1 1 0
-1 1 0
-1 1 0
        </DataArray>
      </PointData>
      <Points>
        <DataArray type="Float32" NumberOfComponents="3" format="ascii">
0 0 0
1 0 0
1 1 0
0 1 0
        </DataArray>
      </Points>
      <Cells>
        <DataArray type="Int32" Name="connectivity" format="ascii">
0 1 2
0 2 3
        </DataArray>
        <DataArray type="Int32" Name="offsets" format="ascii">
3 6
        </DataArray>
        <DataArray type="UInt8" Name="types" format="ascii">
5 5
        </DataArray>
      </Cells>
    </Piece>

    <Piece NumberOfPoints="4" NumberOfCells="2">
      <PointData Vectors="E">
        <DataArray type="Float32" Name="E" NumberOfComponents="3" format="ascii">
1 1 0
1 1 0
1 1 0
1 1 0
        </DataArray>
      </PointData>
      <Points>
        <DataArray type="Float32" NumberOfComponents="3" format="ascii">
0 0 0
1 0 0
1 1 0
0 1 0
        </DataArray>
      </Points>
      <Cells>
        <DataArray type="Int32" Name="connectivity" format="ascii">
0 1 2
0 2 3
        </DataArray>
        <DataArray type="Int32" Name="offsets" format="ascii">
3 6
        </DataArray>
        <DataArray type="UInt8" Name="types" format="ascii">
5 5
        </DataArray>
      </Cells>
    </Piece>

  </UnstructuredGrid>
</VTKFile>
